127.0.0.1
Best Quiz
    Who toots the most? 3.55
    Who owns the window couch? 2
C++ Quiz
MCreator
    What is MCreator primarily used for? 10.45
    Which programming language is commonly used with MCreator? 22.40
    What is the name of the graphical interface in MCreator for creating mod elements? 6.54
    Can MCreator generate code automatically for mod elements? 0.82
    What is the default file format for MCreator workspaces? 24.16
Bacon the Dog Quiz
Cooking Quiz 3
Test Quiz
Test Quiz
quiz for lucas
secret
cool poo
MC Quiz 3
MC Quiz 3
Cooking Quiz
Cooking Quiz 2
Example Quiz
31.94.16.126
MCreator

192.168.50.94
Minecraft Quiz 2
Minecraft Quiz
    What are you looking for when using a map to locate a Woodland Mansion? 3.66
    What is the name of the default Minecraft character with brown hair? 432.86
    What item is needed to craft a crafting table? 7.48
quiz
AIS
Best Quiz
192.168.50.1
192.168.50.80
secret
    bum bum 6.76
    spaghetti 1.99
192.168.50.6
62.64.192.134
Example Quiz
cool poo
    cool poo 4.11
Cooking Quiz 3
quiz for lucas
    Which Minecraft file type is used to define custom item models? 13.79
    What is the core design philosophy behind Command Maker? 13.09
    Which tool is commonly used to test API endpoints during dashboard development? 10.95
    What Windows command is used to map a network drive? 4.07
    Which Minecraft folder stores resource pack sounds? 3.15
    What is the main advantage of a local-first workflow? 4.37
    Which DNS record type points a domain to an IPv4 address? 1.66
    What is the purpose of a Vercel deployment preview? 2.18
    Which Minecraft command is used to run logic repeatedly? 1.75
    What PowerShell cmdlet lists running processes? 3.41
    Which UI pattern is ideal for modular dashboards? 20.08
    Which protocol does SMB rely on? 3.05
    What is the purpose of environment variables in development? 3.85
    Which Minecraft sound format is used in resource packs? 1.49
    What is the main benefit of modular code architecture? 15.10
    Which Vercel feature handles backend logic? 1.93
    What Windows tool manages credentials for SMB shares? 22.00
    Which Minecraft command block mode runs every tick? 1.89
    What is the purpose of a reverse proxy? 1.82
    Which JavaScript library is commonly used for reactive dashboards? 12.17
    What is the advantage of using NBT data in Minecraft? 0.68
    What file defines a Minecraft datapack? 10.08
    Which PowerShell cmdlet changes directories? 7.40
    What is the purpose of a build pipeline? 8.25
    Which Minecraft folder contains functions in a datapack? 8.98
    What is the benefit of using a custom dashboard for uploads? 5.65
    Which DNS record is used for subdomain redirection? 5.42
    What is the purpose of a Minecraft namespace? 4.95
    Which PowerShell cmdlet displays network configuration? 6.24
Common Knowledge Quiz
Bacon the Dog Quiz
    does he have a big brown spot 7.75
Cooking Quiz
MC Quiz 3
    Which gas do plants absorb from the atmosphere? 6.57
    What is the boiling point of water in Celsius? 2.41
    Which element has the atomic number 1? 9.75
    Which sport is played with a shuttlecock? 5.37
    What is the largest mammal in the world? 3.38
    Which continent is the Sahara Desert located in? 5.65
    What is the main ingredient in guacamole? 9.43
    Which planet is closest to the Sun? 3.71
    What is the hardest natural substance on Earth? 2.72
    Which language is spoken in Brazil? 3.70
    What is the capital of Australia? 9.59
    Which gas makes up the majority of Earth's atmosphere? 21.98
    What is the study of stars and planets called? 27.53
    Which animal can change its color? 2.59
    What is the largest bone in the human body? 2.37
    Which country invented pizza? 2.48
    What is the chemical symbol for gold? 5.02
    Which ocean is the Bermuda Triangle located in? 7.83
    What is the process by which plants make their own food? 3.37
    Which famous scientist developed the theory of relativity? 6.15
    Which element is essential for human bones? 10.04
    What is the capital of France? 3.13
    Which planet is known as the Red Planet? 11.21
Gettery quiz
192.168.50.211
192.168.50.159
Common Knowledge Quiz 2
    What is the capital of France? 2.73
    In what year did the Titanic sink? 5.61
    What is the largest planet in our solar system? 2.46
    Who painted the Mona Lisa? 1.60
    What is the chemical symbol for gold? 1.56
    How many continents are there? 1.78
    What is the smallest country in the world? 1.71
    Who wrote Romeo and Juliet? 2.17
    What is the speed of light? 1.26
    How many sides does a hexagon have? 1.58
    What is the largest ocean? 1.00
    In what country is the Great Wall located? 1.16
    What year did World War II end? 1.10
    How many bones are in an adult human body? 1.16
    What is the capital of Japan? 0.97
    Who is known as the Father of Modern Physics? 1.11
    What is the smallest prime number? 36.59
    How many strings does a standard violin have? 1.37
192.168.50.159
Common Knowledge Quiz 2
    What gas do plants absorb from the atmosphere? 1.36
